V -t * -v 1.0a5 -a 0
A -t * -n 1 -p 0 -o 0x7fffffff -c 30 -a 1
A -t * -h 1 -m 1073741823 -s 0
c -t * -i 1 -n Turquoise
c -t * -i 2 -n Gold
n -t * -a 0 -s 0 -S UP -v circle -c black -i black
n -t * -a 1 -s 1 -S UP -v circle -c black -i black
l -t * -s 0 -d 1 -S UP -r 10000000 -D 0.01 -c black
+ -t 0.1 -s 0 -d 1 -p cbr -e 1000 -c 1 -i 0 -a 1 -x {0.0 1.0 0 ------- null}
- -t 0.1 -s 0 -d 1 -p cbr -e 1000 -c 1 -i 0 -a 1 -x {0.0 1.0 0 ------- null}
h -t 0.1 -s 0 -d 1 -p cbr -e 1000 -c 1 -i 0 -a 1 -x {0.0 1.0 -1 ------- null}
+ -t 0.108 -s 0 -d 1 -p cbr -e 1000 -c 1 -i 1 -a 1 -x {0.0 1.0 1 ------- null}
- -t 0.108 -s 0 -d 1 -p cbr -e 1000 -c 1 -i 1 -a 1 -x {0.0 1.0 1 ------- null}
h -t 0.108 -s 0 -d 1 -p cbr -e 1000 -c 1 -i 1 -a 1 -x {0.0 1.0 -1 ------- null}
r -t 0.1108 -s 0 -d 1 -p cbr -e 1000 -c 1 -i 0 -a 1 -x {0.0 1.0 0 ------- null}
+ -t 0.116 -s 0 -d 1 -p cbr -e 1000 -c 1 -i 2 -a 1 -x {0.0 1.0 2 ------- null}
- -t 0.116 -s 0 -d 1 -p cbr -e 1000 -c 1 -i 2 -a 1 -x {0.0 1.0 2 ------- null}
h -t 0.116 -s 0 -d 1 -p cbr -e 1000 -c 1 -i 2 -a 1 -x {0.0 1.0 -1 ------- null}
r -t 0.1188 -s 0 -d 1 -p cbr -e 1000 -c 1 -i 1 -a 1 -x {0.0 1.0 1 ------- null}
+ -t 0.124 -s 0 -d 1 -p cbr -e 1000 -c 1 -i 3 -a 1 -x {0.0 1.0 3 ------- null}
- -t 0.124 -s 0 -d 1 -p cbr -e 1000 -c 1 -i 3 -a 1 -x {0.0 1.0 3 ------- null}
h -t 0.124 -s 0 -d 1 -p cbr -e 1000 -c 1 -i 3 -a 1 -x {0.0 1.0 -1 ------- null}
r -t 0.1268 -s 0 -d 1 -p cbr -e 1000 -c 1 -i 2 -a 1 -x {0.0 1.0 2 ------- null}
+ -t 0.132 -s 0 -d 1 -p cbr -e 1000 -c 1 -i 4 -a 1 -x {0.0 1.0 4 ------- null}
- -t 0.132 -s 0 -d 1 -p cbr -e 1000 -c 1 -i 4 -a 1 -x {0.0 1.0 4 ------- null}
h -t 0.132 -s 0 -d 1 -p cbr -e 1000 -c 1 -i 4 -a 1 -x {0.0 1.0 -1 ------- null}
r -t 0.1348 -s 0 -d 1 -p cbr -e 1000 -c 1 -i 3 -a 1 -x {0.0 1.0 3 ------- null}
+ -t 0.14 -s 0 -d 1 -p cbr -e 1000 -c 1 -i 5 -a 1 -x {0.0 1.0 5 ------- null}
- -t 0.14 -s 0 -d 1 -p cbr -e 1000 -c 1 -i 5 -a 1 -x {0.0 1.0 5 ------- null}
h -t 0.14 -s 0 -d 1 -p cbr -e 1000 -c 1 -i 5 -a 1 -x {0.0 1.0 -1 ------- null}
r -t 0.1428 -s 0 -d 1 -p cbr -e 1000 -c 1 -i 4 -a 1 -x {0.0 1.0 4 ------- null}
+ -t 0.148 -s 0 -d 1 -p cbr -e 1000 -c 1 -i 6 -a 1 -x {0.0 1.0 6 ------- null}
- -t 0.148 -s 0 -d 1 -p cbr -e 1000 -c 1 -i 6 -a 1 -x {0.0 1.0 6 ------- null}
h -t 0.148 -s 0 -d 1 -p cbr -e 1000 -c 1 -i 6 -a 1 -x {0.0 1.0 -1 ------- null}
r -t 0.1508 -s 0 -d 1 -p cbr -e 1000 -c 1 -i 5 -a 1 -x {0.0 1.0 5 ------- null}
+ -t 0.156 -s 0 -d 1 -p cbr -e 1000 -c 1 -i 7 -a 1 -x {0.0 1.0 7 ------- null}
- -t 0.156 -s 0 -d 1 -p cbr -e 1000 -c 1 -i 7 -a 1 -x {0.0 1.0 7 ------- null}
h -t 0.156 -s 0 -d 1 -p cbr -e 1000 -c 1 -i 7 -a 1 -x {0.0 1.0 -1 ------- null}
r -t 0.1588 -s 0 -d 1 -p cbr -e 1000 -c 1 -i 6 -a 1 -x {0.0 1.0 6 ------- null}
+ -t 0.164 -s 0 -d 1 -p cbr -e 1000 -c 1 -i 8 -a 1 -x {0.0 1.0 8 ------- null}
- -t 0.164 -s 0 -d 1 -p cbr -e 1000 -c 1 -i 8 -a 1 -x {0.0 1.0 8 ------- null}
h -t 0.164 -s 0 -d 1 -p cbr -e 1000 -c 1 -i 8 -a 1 -x {0.0 1.0 -1 ------- null}
r -t 0.1668 -s 0 -d 1 -p cbr -e 1000 -c 1 -i 7 -a 1 -x {0.0 1.0 7 ------- null}
+ -t 0.172 -s 0 -d 1 -p cbr -e 1000 -c 1 -i 9 -a 1 -x {0.0 1.0 9 ------- null}
- -t 0.172 -s 0 -d 1 -p cbr -e 1000 -c 1 -i 9 -a 1 -x {0.0 1.0 9 ------- null}
h -t 0.172 -s 0 -d 1 -p cbr -e 1000 -c 1 -i 9 -a 1 -x {0.0 1.0 -1 ------- null}
r -t 0.1748 -s 0 -d 1 -p cbr -e 1000 -c 1 -i 8 -a 1 -x {0.0 1.0 8 ------- null}
+ -t 0.18 -s 0 -d 1 -p cbr -e 1000 -c 1 -i 10 -a 1 -x {0.0 1.0 10 ------- null}
- -t 0.18 -s 0 -d 1 -p cbr -e 1000 -c 1 -i 10 -a 1 -x {0.0 1.0 10 ------- null}
h -t 0.18 -s 0 -d 1 -p cbr -e 1000 -c 1 -i 10 -a 1 -x {0.0 1.0 -1 ------- null}
r -t 0.1828 -s 0 -d 1 -p cbr -e 1000 -c 1 -i 9 -a 1 -x {0.0 1.0 9 ------- null}
+ -t 0.188 -s 0 -d 1 -p cbr -e 1000 -c 1 -i 11 -a 1 -x {0.0 1.0 11 ------- null}
- -t 0.188 -s 0 -d 1 -p cbr -e 1000 -c 1 -i 11 -a 1 -x {0.0 1.0 11 ------- null}
h -t 0.188 -s 0 -d 1 -p cbr -e 1000 -c 1 -i 11 -a 1 -x {0.0 1.0 -1 ------- null}
r -t 0.1908 -s 0 -d 1 -p cbr -e 1000 -c 1 -i 10 -a 1 -x {0.0 1.0 10 ------- null}
+ -t 0.196 -s 0 -d 1 -p cbr -e 1000 -c 1 -i 12 -a 1 -x {0.0 1.0 12 ------- null}
- -t 0.196 -s 0 -d 1 -p cbr -e 1000 -c 1 -i 12 -a 1 -x {0.0 1.0 12 ------- null}
h -t 0.196 -s 0 -d 1 -p cbr -e 1000 -c 1 -i 12 -a 1 -x {0.0 1.0 -1 ------- null}
r -t 0.1988 -s 0 -d 1 -p cbr -e 1000 -c 1 -i 11 -a 1 -x {0.0 1.0 11 ------- null}
+ -t 0.204 -s 0 -d 1 -p cbr -e 1000 -c 1 -i 13 -a 1 -x {0.0 1.0 13 ------- null}
- -t 0.204 -s 0 -d 1 -p cbr -e 1000 -c 1 -i 13 -a 1 -x {0.0 1.0 13 ------- null}
h -t 0.204 -s 0 -d 1 -p cbr -e 1000 -c 1 -i 13 -a 1 -x {0.0 1.0 -1 ------- null}
r -t 0.2068 -s 0 -d 1 -p cbr -e 1000 -c 1 -i 12 -a 1 -x {0.0 1.0 12 ------- null}
+ -t 0.212 -s 0 -d 1 -p cbr -e 1000 -c 1 -i 14 -a 1 -x {0.0 1.0 14 ------- null}
- -t 0.212 -s 0 -d 1 -p cbr -e 1000 -c 1 -i 14 -a 1 -x {0.0 1.0 14 ------- null}
h -t 0.212 -s 0 -d 1 -p cbr -e 1000 -c 1 -i 14 -a 1 -x {0.0 1.0 -1 ------- null}
r -t 0.2148 -s 0 -d 1 -p cbr -e 1000 -c 1 -i 13 -a 1 -x {0.0 1.0 13 ------- null}
+ -t 0.22 -s 0 -d 1 -p cbr -e 1000 -c 1 -i 15 -a 1 -x {0.0 1.0 15 ------- null}
- -t 0.22 -s 0 -d 1 -p cbr -e 1000 -c 1 -i 15 -a 1 -x {0.0 1.0 15 ------- null}
h -t 0.22 -s 0 -d 1 -p cbr -e 1000 -c 1 -i 15 -a 1 -x {0.0 1.0 -1 ------- null}
r -t 0.2228 -s 0 -d 1 -p cbr -e 1000 -c 1 -i 14 -a 1 -x {0.0 1.0 14 ------- null}
+ -t 0.228 -s 0 -d 1 -p cbr -e 1000 -c 1 -i 16 -a 1 -x {0.0 1.0 16 ------- null}
- -t 0.228 -s 0 -d 1 -p cbr -e 1000 -c 1 -i 16 -a 1 -x {0.0 1.0 16 ------- null}
h -t 0.228 -s 0 -d 1 -p cbr -e 1000 -c 1 -i 16 -a 1 -x {0.0 1.0 -1 ------- null}
r -t 0.2308 -s 0 -d 1 -p cbr -e 1000 -c 1 -i 15 -a 1 -x {0.0 1.0 15 ------- null}
+ -t 0.236 -s 0 -d 1 -p cbr -e 1000 -c 1 -i 17 -a 1 -x {0.0 1.0 17 ------- null}
- -t 0.236 -s 0 -d 1 -p cbr -e 1000 -c 1 -i 17 -a 1 -x {0.0 1.0 17 ------- null}
h -t 0.236 -s 0 -d 1 -p cbr -e 1000 -c 1 -i 17 -a 1 -x {0.0 1.0 -1 ------- null}
r -t 0.2388 -s 0 -d 1 -p cbr -e 1000 -c 1 -i 16 -a 1 -x {0.0 1.0 16 ------- null}
+ -t 0.244 -s 0 -d 1 -p cbr -e 1000 -c 1 -i 18 -a 1 -x {0.0 1.0 18 ------- null}
- -t 0.244 -s 0 -d 1 -p cbr -e 1000 -c 1 -i 18 -a 1 -x {0.0 1.0 18 ------- null}
h -t 0.244 -s 0 -d 1 -p cbr -e 1000 -c 1 -i 18 -a 1 -x {0.0 1.0 -1 ------- null}
r -t 0.2468 -s 0 -d 1 -p cbr -e 1000 -c 1 -i 17 -a 1 -x {0.0 1.0 17 ------- null}
+ -t 0.252 -s 0 -d 1 -p cbr -e 1000 -c 1 -i 19 -a 1 -x {0.0 1.0 19 ------- null}
- -t 0.252 -s 0 -d 1 -p cbr -e 1000 -c 1 -i 19 -a 1 -x {0.0 1.0 19 ------- null}
h -t 0.252 -s 0 -d 1 -p cbr -e 1000 -c 1 -i 19 -a 1 -x {0.0 1.0 -1 ------- null}
r -t 0.2548 -s 0 -d 1 -p cbr -e 1000 -c 1 -i 18 -a 1 -x {0.0 1.0 18 ------- null}
+ -t 0.26 -s 0 -d 1 -p cbr -e 1000 -c 1 -i 20 -a 1 -x {0.0 1.0 20 ------- null}
- -t 0.26 -s 0 -d 1 -p cbr -e 1000 -c 1 -i 20 -a 1 -x {0.0 1.0 20 ------- null}
h -t 0.26 -s 0 -d 1 -p cbr -e 1000 -c 1 -i 20 -a 1 -x {0.0 1.0 -1 ------- null}
r -t 0.2628 -s 0 -d 1 -p cbr -e 1000 -c 1 -i 19 -a 1 -x {0.0 1.0 19 ------- null}
+ -t 0.268 -s 0 -d 1 -p cbr -e 1000 -c 1 -i 21 -a 1 -x {0.0 1.0 21 ------- null}
- -t 0.268 -s 0 -d 1 -p cbr -e 1000 -c 1 -i 21 -a 1 -x {0.0 1.0 21 ------- null}
h -t 0.268 -s 0 -d 1 -p cbr -e 1000 -c 1 -i 21 -a 1 -x {0.0 1.0 -1 ------- null}
r -t 0.2708 -s 0 -d 1 -p cbr -e 1000 -c 1 -i 20 -a 1 -x {0.0 1.0 20 ------- null}
+ -t 0.276 -s 0 -d 1 -p cbr -e 1000 -c 1 -i 22 -a 1 -x {0.0 1.0 22 ------- null}
- -t 0.276 -s 0 -d 1 -p cbr -e 1000 -c 1 -i 22 -a 1 -x {0.0 1.0 22 ------- null}
h -t 0.276 -s 0 -d 1 -p cbr -e 1000 -c 1 -i 22 -a 1 -x {0.0 1.0 -1 ------- null}
r -t 0.2788 -s 0 -d 1 -p cbr -e 1000 -c 1 -i 21 -a 1 -x {0.0 1.0 21 ------- null}
+ -t 0.284 -s 0 -d 1 -p cbr -e 1000 -c 1 -i 23 -a 1 -x {0.0 1.0 23 ------- null}
- -t 0.284 -s 0 -d 1 -p cbr -e 1000 -c 1 -i 23 -a 1 -x {0.0 1.0 23 ------- null}
h -t 0.284 -s 0 -d 1 -p cbr -e 1000 -c 1 -i 23 -a 1 -x {0.0 1.0 -1 ------- null}
r -t 0.2868 -s 0 -d 1 -p cbr -e 1000 -c 1 -i 22 -a 1 -x {0.0 1.0 22 ------- null}
+ -t 0.292 -s 0 -d 1 -p cbr -e 1000 -c 1 -i 24 -a 1 -x {0.0 1.0 24 ------- null}
- -t 0.292 -s 0 -d 1 -p cbr -e 1000 -c 1 -i 24 -a 1 -x {0.0 1.0 24 ------- null}
h -t 0.292 -s 0 -d 1 -p cbr -e 1000 -c 1 -i 24 -a 1 -x {0.0 1.0 -1 ------- null}
r -t 0.2948 -s 0 -d 1 -p cbr -e 1000 -c 1 -i 23 -a 1 -x {0.0 1.0 23 ------- null}
+ -t 0.3 -s 0 -d 1 -p cbr -e 1000 -c 1 -i 25 -a 1 -x {0.0 1.0 25 ------- null}
- -t 0.3 -s 0 -d 1 -p cbr -e 1000 -c 1 -i 25 -a 1 -x {0.0 1.0 25 ------- null}
h -t 0.3 -s 0 -d 1 -p cbr -e 1000 -c 1 -i 25 -a 1 -x {0.0 1.0 -1 ------- null}
r -t 0.3028 -s 0 -d 1 -p cbr -e 1000 -c 1 -i 24 -a 1 -x {0.0 1.0 24 ------- null}
+ -t 0.308 -s 0 -d 1 -p cbr -e 1000 -c 1 -i 26 -a 1 -x {0.0 1.0 26 ------- null}
- -t 0.308 -s 0 -d 1 -p cbr -e 1000 -c 1 -i 26 -a 1 -x {0.0 1.0 26 ------- null}
h -t 0.308 -s 0 -d 1 -p cbr -e 1000 -c 1 -i 26 -a 1 -x {0.0 1.0 -1 ------- null}
r -t 0.3108 -s 0 -d 1 -p cbr -e 1000 -c 1 -i 25 -a 1 -x {0.0 1.0 25 ------- null}
+ -t 0.316 -s 0 -d 1 -p cbr -e 1000 -c 1 -i 27 -a 1 -x {0.0 1.0 27 ------- null}
- -t 0.316 -s 0 -d 1 -p cbr -e 1000 -c 1 -i 27 -a 1 -x {0.0 1.0 27 ------- null}
h -t 0.316 -s 0 -d 1 -p cbr -e 1000 -c 1 -i 27 -a 1 -x {0.0 1.0 -1 ------- null}
r -t 0.3188 -s 0 -d 1 -p cbr -e 1000 -c 1 -i 26 -a 1 -x {0.0 1.0 26 ------- null}
+ -t 0.324 -s 0 -d 1 -p cbr -e 1000 -c 1 -i 28 -a 1 -x {0.0 1.0 28 ------- null}
- -t 0.324 -s 0 -d 1 -p cbr -e 1000 -c 1 -i 28 -a 1 -x {0.0 1.0 28 ------- null}
h -t 0.324 -s 0 -d 1 -p cbr -e 1000 -c 1 -i 28 -a 1 -x {0.0 1.0 -1 ------- null}
r -t 0.3268 -s 0 -d 1 -p cbr -e 1000 -c 1 -i 27 -a 1 -x {0.0 1.0 27 ------- null}
+ -t 0.332 -s 0 -d 1 -p cbr -e 1000 -c 1 -i 29 -a 1 -x {0.0 1.0 29 ------- null}
- -t 0.332 -s 0 -d 1 -p cbr -e 1000 -c 1 -i 29 -a 1 -x {0.0 1.0 29 ------- null}
h -t 0.332 -s 0 -d 1 -p cbr -e 1000 -c 1 -i 29 -a 1 -x {0.0 1.0 -1 ------- null}
r -t 0.3348 -s 0 -d 1 -p cbr -e 1000 -c 1 -i 28 -a 1 -x {0.0 1.0 28 ------- null}
+ -t 0.34 -s 0 -d 1 -p cbr -e 1000 -c 1 -i 30 -a 1 -x {0.0 1.0 30 ------- null}
- -t 0.34 -s 0 -d 1 -p cbr -e 1000 -c 1 -i 30 -a 1 -x {0.0 1.0 30 ------- null}
h -t 0.34 -s 0 -d 1 -p cbr -e 1000 -c 1 -i 30 -a 1 -x {0.0 1.0 -1 ------- null}
r -t 0.3428 -s 0 -d 1 -p cbr -e 1000 -c 1 -i 29 -a 1 -x {0.0 1.0 29 ------- null}
+ -t 0.348 -s 0 -d 1 -p cbr -e 1000 -c 1 -i 31 -a 1 -x {0.0 1.0 31 ------- null}
- -t 0.348 -s 0 -d 1 -p cbr -e 1000 -c 1 -i 31 -a 1 -x {0.0 1.0 31 ------- null}
h -t 0.348 -s 0 -d 1 -p cbr -e 1000 -c 1 -i 31 -a 1 -x {0.0 1.0 -1 ------- null}
r -t 0.3508 -s 0 -d 1 -p cbr -e 1000 -c 1 -i 30 -a 1 -x {0.0 1.0 30 ------- null}
+ -t 0.356 -s 0 -d 1 -p cbr -e 1000 -c 1 -i 32 -a 1 -x {0.0 1.0 32 ------- null}
- -t 0.356 -s 0 -d 1 -p cbr -e 1000 -c 1 -i 32 -a 1 -x {0.0 1.0 32 ------- null}
h -t 0.356 -s 0 -d 1 -p cbr -e 1000 -c 1 -i 32 -a 1 -x {0.0 1.0 -1 ------- null}
r -t 0.3588 -s 0 -d 1 -p cbr -e 1000 -c 1 -i 31 -a 1 -x {0.0 1.0 31 ------- null}
+ -t 0.364 -s 0 -d 1 -p cbr -e 1000 -c 1 -i 33 -a 1 -x {0.0 1.0 33 ------- null}
- -t 0.364 -s 0 -d 1 -p cbr -e 1000 -c 1 -i 33 -a 1 -x {0.0 1.0 33 ------- null}
h -t 0.364 -s 0 -d 1 -p cbr -e 1000 -c 1 -i 33 -a 1 -x {0.0 1.0 -1 ------- null}
r -t 0.3668 -s 0 -d 1 -p cbr -e 1000 -c 1 -i 32 -a 1 -x {0.0 1.0 32 ------- null}
+ -t 0.372 -s 0 -d 1 -p cbr -e 1000 -c 1 -i 34 -a 1 -x {0.0 1.0 34 ------- null}
- -t 0.372 -s 0 -d 1 -p cbr -e 1000 -c 1 -i 34 -a 1 -x {0.0 1.0 34 ------- null}
h -t 0.372 -s 0 -d 1 -p cbr -e 1000 -c 1 -i 34 -a 1 -x {0.0 1.0 -1 ------- null}
r -t 0.3748 -s 0 -d 1 -p cbr -e 1000 -c 1 -i 33 -a 1 -x {0.0 1.0 33 ------- null}
+ -t 0.38 -s 0 -d 1 -p cbr -e 1000 -c 1 -i 35 -a 1 -x {0.0 1.0 35 ------- null}
- -t 0.38 -s 0 -d 1 -p cbr -e 1000 -c 1 -i 35 -a 1 -x {0.0 1.0 35 ------- null}
h -t 0.38 -s 0 -d 1 -p cbr -e 1000 -c 1 -i 35 -a 1 -x {0.0 1.0 -1 ------- null}
r -t 0.3828 -s 0 -d 1 -p cbr -e 1000 -c 1 -i 34 -a 1 -x {0.0 1.0 34 ------- null}
+ -t 0.388 -s 0 -d 1 -p cbr -e 1000 -c 1 -i 36 -a 1 -x {0.0 1.0 36 ------- null}
- -t 0.388 -s 0 -d 1 -p cbr -e 1000 -c 1 -i 36 -a 1 -x {0.0 1.0 36 ------- null}
h -t 0.388 -s 0 -d 1 -p cbr -e 1000 -c 1 -i 36 -a 1 -x {0.0 1.0 -1 ------- null}
r -t 0.3908 -s 0 -d 1 -p cbr -e 1000 -c 1 -i 35 -a 1 -x {0.0 1.0 35 ------- null}
+ -t 0.396 -s 0 -d 1 -p cbr -e 1000 -c 1 -i 37 -a 1 -x {0.0 1.0 37 ------- null}
- -t 0.396 -s 0 -d 1 -p cbr -e 1000 -c 1 -i 37 -a 1 -x {0.0 1.0 37 ------- null}
h -t 0.396 -s 0 -d 1 -p cbr -e 1000 -c 1 -i 37 -a 1 -x {0.0 1.0 -1 ------- null}
r -t 0.3988 -s 0 -d 1 -p cbr -e 1000 -c 1 -i 36 -a 1 -x {0.0 1.0 36 ------- null}
+ -t 0.404 -s 0 -d 1 -p cbr -e 1000 -c 1 -i 38 -a 1 -x {0.0 1.0 38 ------- null}
- -t 0.404 -s 0 -d 1 -p cbr -e 1000 -c 1 -i 38 -a 1 -x {0.0 1.0 38 ------- null}
h -t 0.404 -s 0 -d 1 -p cbr -e 1000 -c 1 -i 38 -a 1 -x {0.0 1.0 -1 ------- null}
r -t 0.4068 -s 0 -d 1 -p cbr -e 1000 -c 1 -i 37 -a 1 -x {0.0 1.0 37 ------- null}
+ -t 0.412 -s 0 -d 1 -p cbr -e 1000 -c 1 -i 39 -a 1 -x {0.0 1.0 39 ------- null}
- -t 0.412 -s 0 -d 1 -p cbr -e 1000 -c 1 -i 39 -a 1 -x {0.0 1.0 39 ------- null}
h -t 0.412 -s 0 -d 1 -p cbr -e 1000 -c 1 -i 39 -a 1 -x {0.0 1.0 -1 ------- null}
r -t 0.4148 -s 0 -d 1 -p cbr -e 1000 -c 1 -i 38 -a 1 -x {0.0 1.0 38 ------- null}
+ -t 0.42 -s 0 -d 1 -p cbr -e 1000 -c 1 -i 40 -a 1 -x {0.0 1.0 40 ------- null}
- -t 0.42 -s 0 -d 1 -p cbr -e 1000 -c 1 -i 40 -a 1 -x {0.0 1.0 40 ------- null}
h -t 0.42 -s 0 -d 1 -p cbr -e 1000 -c 1 -i 40 -a 1 -x {0.0 1.0 -1 ------- null}
r -t 0.4228 -s 0 -d 1 -p cbr -e 1000 -c 1 -i 39 -a 1 -x {0.0 1.0 39 ------- null}
+ -t 0.428 -s 0 -d 1 -p cbr -e 1000 -c 1 -i 41 -a 1 -x {0.0 1.0 41 ------- null}
- -t 0.428 -s 0 -d 1 -p cbr -e 1000 -c 1 -i 41 -a 1 -x {0.0 1.0 41 ------- null}
h -t 0.428 -s 0 -d 1 -p cbr -e 1000 -c 1 -i 41 -a 1 -x {0.0 1.0 -1 ------- null}
r -t 0.4308 -s 0 -d 1 -p cbr -e 1000 -c 1 -i 40 -a 1 -x {0.0 1.0 40 ------- null}
+ -t 0.436 -s 0 -d 1 -p cbr -e 1000 -c 1 -i 42 -a 1 -x {0.0 1.0 42 ------- null}
- -t 0.436 -s 0 -d 1 -p cbr -e 1000 -c 1 -i 42 -a 1 -x {0.0 1.0 42 ------- null}
h -t 0.436 -s 0 -d 1 -p cbr -e 1000 -c 1 -i 42 -a 1 -x {0.0 1.0 -1 ------- null}
r -t 0.4388 -s 0 -d 1 -p cbr -e 1000 -c 1 -i 41 -a 1 -x {0.0 1.0 41 ------- null}
+ -t 0.444 -s 0 -d 1 -p cbr -e 1000 -c 1 -i 43 -a 1 -x {0.0 1.0 43 ------- null}
- -t 0.444 -s 0 -d 1 -p cbr -e 1000 -c 1 -i 43 -a 1 -x {0.0 1.0 43 ------- null}
h -t 0.444 -s 0 -d 1 -p cbr -e 1000 -c 1 -i 43 -a 1 -x {0.0 1.0 -1 ------- null}
r -t 0.4468 -s 0 -d 1 -p cbr -e 1000 -c 1 -i 42 -a 1 -x {0.0 1.0 42 ------- null}
+ -t 0.452 -s 0 -d 1 -p cbr -e 1000 -c 1 -i 44 -a 1 -x {0.0 1.0 44 ------- null}
- -t 0.452 -s 0 -d 1 -p cbr -e 1000 -c 1 -i 44 -a 1 -x {0.0 1.0 44 ------- null}
h -t 0.452 -s 0 -d 1 -p cbr -e 1000 -c 1 -i 44 -a 1 -x {0.0 1.0 -1 ------- null}
r -t 0.4548 -s 0 -d 1 -p cbr -e 1000 -c 1 -i 43 -a 1 -x {0.0 1.0 43 ------- null}
+ -t 0.46 -s 0 -d 1 -p cbr -e 1000 -c 1 -i 45 -a 1 -x {0.0 1.0 45 ------- null}
- -t 0.46 -s 0 -d 1 -p cbr -e 1000 -c 1 -i 45 -a 1 -x {0.0 1.0 45 ------- null}
h -t 0.46 -s 0 -d 1 -p cbr -e 1000 -c 1 -i 45 -a 1 -x {0.0 1.0 -1 ------- null}
r -t 0.4628 -s 0 -d 1 -p cbr -e 1000 -c 1 -i 44 -a 1 -x {0.0 1.0 44 ------- null}
+ -t 0.468 -s 0 -d 1 -p cbr -e 1000 -c 1 -i 46 -a 1 -x {0.0 1.0 46 ------- null}
- -t 0.468 -s 0 -d 1 -p cbr -e 1000 -c 1 -i 46 -a 1 -x {0.0 1.0 46 ------- null}
h -t 0.468 -s 0 -d 1 -p cbr -e 1000 -c 1 -i 46 -a 1 -x {0.0 1.0 -1 ------- null}
r -t 0.4708 -s 0 -d 1 -p cbr -e 1000 -c 1 -i 45 -a 1 -x {0.0 1.0 45 ------- null}
+ -t 0.476 -s 0 -d 1 -p cbr -e 1000 -c 1 -i 47 -a 1 -x {0.0 1.0 47 ------- null}
- -t 0.476 -s 0 -d 1 -p cbr -e 1000 -c 1 -i 47 -a 1 -x {0.0 1.0 47 ------- null}
h -t 0.476 -s 0 -d 1 -p cbr -e 1000 -c 1 -i 47 -a 1 -x {0.0 1.0 -1 ------- null}
r -t 0.4788 -s 0 -d 1 -p cbr -e 1000 -c 1 -i 46 -a 1 -x {0.0 1.0 46 ------- null}
+ -t 0.484 -s 0 -d 1 -p cbr -e 1000 -c 1 -i 48 -a 1 -x {0.0 1.0 48 ------- null}
- -t 0.484 -s 0 -d 1 -p cbr -e 1000 -c 1 -i 48 -a 1 -x {0.0 1.0 48 ------- null}
h -t 0.484 -s 0 -d 1 -p cbr -e 1000 -c 1 -i 48 -a 1 -x {0.0 1.0 -1 ------- null}
r -t 0.4868 -s 0 -d 1 -p cbr -e 1000 -c 1 -i 47 -a 1 -x {0.0 1.0 47 ------- null}
+ -t 0.492 -s 0 -d 1 -p cbr -e 1000 -c 1 -i 49 -a 1 -x {0.0 1.0 49 ------- null}
- -t 0.492 -s 0 -d 1 -p cbr -e 1000 -c 1 -i 49 -a 1 -x {0.0 1.0 49 ------- null}
h -t 0.492 -s 0 -d 1 -p cbr -e 1000 -c 1 -i 49 -a 1 -x {0.0 1.0 -1 ------- null}
r -t 0.4948 -s 0 -d 1 -p cbr -e 1000 -c 1 -i 48 -a 1 -x {0.0 1.0 48 ------- null}
+ -t 0.5 -s 0 -d 1 -p cbr -e 1000 -c 1 -i 50 -a 1 -x {0.0 1.0 50 ------- null}
- -t 0.5 -s 0 -d 1 -p cbr -e 1000 -c 1 -i 50 -a 1 -x {0.0 1.0 50 ------- null}
h -t 0.5 -s 0 -d 1 -p cbr -e 1000 -c 1 -i 50 -a 1 -x {0.0 1.0 -1 ------- null}
r -t 0.5028 -s 0 -d 1 -p cbr -e 1000 -c 1 -i 49 -a 1 -x {0.0 1.0 49 ------- null}
+ -t 0.508 -s 0 -d 1 -p cbr -e 1000 -c 1 -i 51 -a 1 -x {0.0 1.0 51 ------- null}
- -t 0.508 -s 0 -d 1 -p cbr -e 1000 -c 1 -i 51 -a 1 -x {0.0 1.0 51 ------- null}
h -t 0.508 -s 0 -d 1 -p cbr -e 1000 -c 1 -i 51 -a 1 -x {0.0 1.0 -1 ------- null}
r -t 0.5108 -s 0 -d 1 -p cbr -e 1000 -c 1 -i 50 -a 1 -x {0.0 1.0 50 ------- null}
+ -t 0.516 -s 0 -d 1 -p cbr -e 1000 -c 1 -i 52 -a 1 -x {0.0 1.0 52 ------- null}
- -t 0.516 -s 0 -d 1 -p cbr -e 1000 -c 1 -i 52 -a 1 -x {0.0 1.0 52 ------- null}
h -t 0.516 -s 0 -d 1 -p cbr -e 1000 -c 1 -i 52 -a 1 -x {0.0 1.0 -1 ------- null}
r -t 0.5188 -s 0 -d 1 -p cbr -e 1000 -c 1 -i 51 -a 1 -x {0.0 1.0 51 ------- null}
+ -t 0.524 -s 0 -d 1 -p cbr -e 1000 -c 1 -i 53 -a 1 -x {0.0 1.0 53 ------- null}
- -t 0.524 -s 0 -d 1 -p cbr -e 1000 -c 1 -i 53 -a 1 -x {0.0 1.0 53 ------- null}
h -t 0.524 -s 0 -d 1 -p cbr -e 1000 -c 1 -i 53 -a 1 -x {0.0 1.0 -1 ------- null}
r -t 0.5268 -s 0 -d 1 -p cbr -e 1000 -c 1 -i 52 -a 1 -x {0.0 1.0 52 ------- null}
+ -t 0.532 -s 0 -d 1 -p cbr -e 1000 -c 1 -i 54 -a 1 -x {0.0 1.0 54 ------- null}
- -t 0.532 -s 0 -d 1 -p cbr -e 1000 -c 1 -i 54 -a 1 -x {0.0 1.0 54 ------- null}
h -t 0.532 -s 0 -d 1 -p cbr -e 1000 -c 1 -i 54 -a 1 -x {0.0 1.0 -1 ------- null}
r -t 0.5348 -s 0 -d 1 -p cbr -e 1000 -c 1 -i 53 -a 1 -x {0.0 1.0 53 ------- null}
+ -t 0.54 -s 0 -d 1 -p cbr -e 1000 -c 1 -i 55 -a 1 -x {0.0 1.0 55 ------- null}
- -t 0.54 -s 0 -d 1 -p cbr -e 1000 -c 1 -i 55 -a 1 -x {0.0 1.0 55 ------- null}
h -t 0.54 -s 0 -d 1 -p cbr -e 1000 -c 1 -i 55 -a 1 -x {0.0 1.0 -1 ------- null}
r -t 0.5428 -s 0 -d 1 -p cbr -e 1000 -c 1 -i 54 -a 1 -x {0.0 1.0 54 ------- null}
+ -t 0.548 -s 0 -d 1 -p cbr -e 1000 -c 1 -i 56 -a 1 -x {0.0 1.0 56 ------- null}
- -t 0.548 -s 0 -d 1 -p cbr -e 1000 -c 1 -i 56 -a 1 -x {0.0 1.0 56 ------- null}
h -t 0.548 -s 0 -d 1 -p cbr -e 1000 -c 1 -i 56 -a 1 -x {0.0 1.0 -1 ------- null}
r -t 0.5508 -s 0 -d 1 -p cbr -e 1000 -c 1 -i 55 -a 1 -x {0.0 1.0 55 ------- null}
+ -t 0.556 -s 0 -d 1 -p cbr -e 1000 -c 1 -i 57 -a 1 -x {0.0 1.0 57 ------- null}
- -t 0.556 -s 0 -d 1 -p cbr -e 1000 -c 1 -i 57 -a 1 -x {0.0 1.0 57 ------- null}
h -t 0.556 -s 0 -d 1 -p cbr -e 1000 -c 1 -i 57 -a 1 -x {0.0 1.0 -1 ------- null}
r -t 0.5588 -s 0 -d 1 -p cbr -e 1000 -c 1 -i 56 -a 1 -x {0.0 1.0 56 ------- null}
+ -t 0.564 -s 0 -d 1 -p cbr -e 1000 -c 1 -i 58 -a 1 -x {0.0 1.0 58 ------- null}
- -t 0.564 -s 0 -d 1 -p cbr -e 1000 -c 1 -i 58 -a 1 -x {0.0 1.0 58 ------- null}
h -t 0.564 -s 0 -d 1 -p cbr -e 1000 -c 1 -i 58 -a 1 -x {0.0 1.0 -1 ------- null}
r -t 0.5668 -s 0 -d 1 -p cbr -e 1000 -c 1 -i 57 -a 1 -x {0.0 1.0 57 ------- null}
+ -t 0.572 -s 0 -d 1 -p cbr -e 1000 -c 1 -i 59 -a 1 -x {0.0 1.0 59 ------- null}
- -t 0.572 -s 0 -d 1 -p cbr -e 1000 -c 1 -i 59 -a 1 -x {0.0 1.0 59 ------- null}
h -t 0.572 -s 0 -d 1 -p cbr -e 1000 -c 1 -i 59 -a 1 -x {0.0 1.0 -1 ------- null}
r -t 0.5748 -s 0 -d 1 -p cbr -e 1000 -c 1 -i 58 -a 1 -x {0.0 1.0 58 ------- null}
+ -t 0.58 -s 0 -d 1 -p cbr -e 1000 -c 1 -i 60 -a 1 -x {0.0 1.0 60 ------- null}
- -t 0.58 -s 0 -d 1 -p cbr -e 1000 -c 1 -i 60 -a 1 -x {0.0 1.0 60 ------- null}
h -t 0.58 -s 0 -d 1 -p cbr -e 1000 -c 1 -i 60 -a 1 -x {0.0 1.0 -1 ------- null}
r -t 0.5828 -s 0 -d 1 -p cbr -e 1000 -c 1 -i 59 -a 1 -x {0.0 1.0 59 ------- null}
+ -t 0.588 -s 0 -d 1 -p cbr -e 1000 -c 1 -i 61 -a 1 -x {0.0 1.0 61 ------- null}
- -t 0.588 -s 0 -d 1 -p cbr -e 1000 -c 1 -i 61 -a 1 -x {0.0 1.0 61 ------- null}
h -t 0.588 -s 0 -d 1 -p cbr -e 1000 -c 1 -i 61 -a 1 -x {0.0 1.0 -1 ------- null}
r -t 0.5908 -s 0 -d 1 -p cbr -e 1000 -c 1 -i 60 -a 1 -x {0.0 1.0 60 ------- null}
+ -t 0.596 -s 0 -d 1 -p cbr -e 1000 -c 1 -i 62 -a 1 -x {0.0 1.0 62 ------- null}
- -t 0.596 -s 0 -d 1 -p cbr -e 1000 -c 1 -i 62 -a 1 -x {0.0 1.0 62 ------- null}
h -t 0.596 -s 0 -d 1 -p cbr -e 1000 -c 1 -i 62 -a 1 -x {0.0 1.0 -1 ------- null}
r -t 0.5988 -s 0 -d 1 -p cbr -e 1000 -c 1 -i 61 -a 1 -x {0.0 1.0 61 ------- null}
+ -t 0.604 -s 0 -d 1 -p cbr -e 1000 -c 1 -i 63 -a 1 -x {0.0 1.0 63 ------- null}
- -t 0.604 -s 0 -d 1 -p cbr -e 1000 -c 1 -i 63 -a 1 -x {0.0 1.0 63 ------- null}
h -t 0.604 -s 0 -d 1 -p cbr -e 1000 -c 1 -i 63 -a 1 -x {0.0 1.0 -1 ------- null}
r -t 0.6068 -s 0 -d 1 -p cbr -e 1000 -c 1 -i 62 -a 1 -x {0.0 1.0 62 ------- null}
+ -t 0.612 -s 0 -d 1 -p cbr -e 1000 -c 1 -i 64 -a 1 -x {0.0 1.0 64 ------- null}
- -t 0.612 -s 0 -d 1 -p cbr -e 1000 -c 1 -i 64 -a 1 -x {0.0 1.0 64 ------- null}
h -t 0.612 -s 0 -d 1 -p cbr -e 1000 -c 1 -i 64 -a 1 -x {0.0 1.0 -1 ------- null}
r -t 0.6148 -s 0 -d 1 -p cbr -e 1000 -c 1 -i 63 -a 1 -x {0.0 1.0 63 ------- null}
+ -t 0.62 -s 0 -d 1 -p cbr -e 1000 -c 1 -i 65 -a 1 -x {0.0 1.0 65 ------- null}
- -t 0.62 -s 0 -d 1 -p cbr -e 1000 -c 1 -i 65 -a 1 -x {0.0 1.0 65 ------- null}
h -t 0.62 -s 0 -d 1 -p cbr -e 1000 -c 1 -i 65 -a 1 -x {0.0 1.0 -1 ------- null}
r -t 0.6228 -s 0 -d 1 -p cbr -e 1000 -c 1 -i 64 -a 1 -x {0.0 1.0 64 ------- null}
+ -t 0.628 -s 0 -d 1 -p cbr -e 1000 -c 1 -i 66 -a 1 -x {0.0 1.0 66 ------- null}
- -t 0.628 -s 0 -d 1 -p cbr -e 1000 -c 1 -i 66 -a 1 -x {0.0 1.0 66 ------- null}
h -t 0.628 -s 0 -d 1 -p cbr -e 1000 -c 1 -i 66 -a 1 -x {0.0 1.0 -1 ------- null}
r -t 0.6308 -s 0 -d 1 -p cbr -e 1000 -c 1 -i 65 -a 1 -x {0.0 1.0 65 ------- null}
+ -t 0.636 -s 0 -d 1 -p cbr -e 1000 -c 1 -i 67 -a 1 -x {0.0 1.0 67 ------- null}
- -t 0.636 -s 0 -d 1 -p cbr -e 1000 -c 1 -i 67 -a 1 -x {0.0 1.0 67 ------- null}
h -t 0.636 -s 0 -d 1 -p cbr -e 1000 -c 1 -i 67 -a 1 -x {0.0 1.0 -1 ------- null}
r -t 0.6388 -s 0 -d 1 -p cbr -e 1000 -c 1 -i 66 -a 1 -x {0.0 1.0 66 ------- null}
+ -t 0.644 -s 0 -d 1 -p cbr -e 1000 -c 1 -i 68 -a 1 -x {0.0 1.0 68 ------- null}
- -t 0.644 -s 0 -d 1 -p cbr -e 1000 -c 1 -i 68 -a 1 -x {0.0 1.0 68 ------- null}
h -t 0.644 -s 0 -d 1 -p cbr -e 1000 -c 1 -i 68 -a 1 -x {0.0 1.0 -1 ------- null}
r -t 0.6468 -s 0 -d 1 -p cbr -e 1000 -c 1 -i 67 -a 1 -x {0.0 1.0 67 ------- null}
+ -t 0.652 -s 0 -d 1 -p cbr -e 1000 -c 1 -i 69 -a 1 -x {0.0 1.0 69 ------- null}
- -t 0.652 -s 0 -d 1 -p cbr -e 1000 -c 1 -i 69 -a 1 -x {0.0 1.0 69 ------- null}
h -t 0.652 -s 0 -d 1 -p cbr -e 1000 -c 1 -i 69 -a 1 -x {0.0 1.0 -1 ------- null}
r -t 0.6548 -s 0 -d 1 -p cbr -e 1000 -c 1 -i 68 -a 1 -x {0.0 1.0 68 ------- null}
+ -t 0.66 -s 0 -d 1 -p cbr -e 1000 -c 1 -i 70 -a 1 -x {0.0 1.0 70 ------- null}
- -t 0.66 -s 0 -d 1 -p cbr -e 1000 -c 1 -i 70 -a 1 -x {0.0 1.0 70 ------- null}
h -t 0.66 -s 0 -d 1 -p cbr -e 1000 -c 1 -i 70 -a 1 -x {0.0 1.0 -1 ------- null}
r -t 0.6628 -s 0 -d 1 -p cbr -e 1000 -c 1 -i 69 -a 1 -x {0.0 1.0 69 ------- null}
+ -t 0.668 -s 0 -d 1 -p cbr -e 1000 -c 1 -i 71 -a 1 -x {0.0 1.0 71 ------- null}
- -t 0.668 -s 0 -d 1 -p cbr -e 1000 -c 1 -i 71 -a 1 -x {0.0 1.0 71 ------- null}
h -t 0.668 -s 0 -d 1 -p cbr -e 1000 -c 1 -i 71 -a 1 -x {0.0 1.0 -1 ------- null}
r -t 0.670800000000001 -s 0 -d 1 -p cbr -e 1000 -c 1 -i 70 -a 1 -x {0.0 1.0 70 ------- null}
+ -t 0.676 -s 0 -d 1 -p cbr -e 1000 -c 1 -i 72 -a 1 -x {0.0 1.0 72 ------- null}
- -t 0.676 -s 0 -d 1 -p cbr -e 1000 -c 1 -i 72 -a 1 -x {0.0 1.0 72 ------- null}
h -t 0.676 -s 0 -d 1 -p cbr -e 1000 -c 1 -i 72 -a 1 -x {0.0 1.0 -1 ------- null}
r -t 0.678800000000001 -s 0 -d 1 -p cbr -e 1000 -c 1 -i 71 -a 1 -x {0.0 1.0 71 ------- null}
+ -t 0.684 -s 0 -d 1 -p cbr -e 1000 -c 1 -i 73 -a 1 -x {0.0 1.0 73 ------- null}
- -t 0.684 -s 0 -d 1 -p cbr -e 1000 -c 1 -i 73 -a 1 -x {0.0 1.0 73 ------- null}
h -t 0.684 -s 0 -d 1 -p cbr -e 1000 -c 1 -i 73 -a 1 -x {0.0 1.0 -1 ------- null}
r -t 0.686800000000001 -s 0 -d 1 -p cbr -e 1000 -c 1 -i 72 -a 1 -x {0.0 1.0 72 ------- null}
+ -t 0.692000000000001 -s 0 -d 1 -p cbr -e 1000 -c 1 -i 74 -a 1 -x {0.0 1.0 74 ------- null}
- -t 0.692000000000001 -s 0 -d 1 -p cbr -e 1000 -c 1 -i 74 -a 1 -x {0.0 1.0 74 ------- null}
h -t 0.692000000000001 -s 0 -d 1 -p cbr -e 1000 -c 1 -i 74 -a 1 -x {0.0 1.0 -1 ------- null}
r -t 0.694800000000001 -s 0 -d 1 -p cbr -e 1000 -c 1 -i 73 -a 1 -x {0.0 1.0 73 ------- null}
+ -t 0.700000000000001 -s 0 -d 1 -p cbr -e 1000 -c 1 -i 75 -a 1 -x {0.0 1.0 75 ------- null}
- -t 0.700000000000001 -s 0 -d 1 -p cbr -e 1000 -c 1 -i 75 -a 1 -x {0.0 1.0 75 ------- null}
h -t 0.700000000000001 -s 0 -d 1 -p cbr -e 1000 -c 1 -i 75 -a 1 -x {0.0 1.0 -1 ------- null}
r -t 0.702800000000001 -s 0 -d 1 -p cbr -e 1000 -c 1 -i 74 -a 1 -x {0.0 1.0 74 ------- null}
+ -t 0.708000000000001 -s 0 -d 1 -p cbr -e 1000 -c 1 -i 76 -a 1 -x {0.0 1.0 76 ------- null}
- -t 0.708000000000001 -s 0 -d 1 -p cbr -e 1000 -c 1 -i 76 -a 1 -x {0.0 1.0 76 ------- null}
h -t 0.708000000000001 -s 0 -d 1 -p cbr -e 1000 -c 1 -i 76 -a 1 -x {0.0 1.0 -1 ------- null}
r -t 0.710800000000001 -s 0 -d 1 -p cbr -e 1000 -c 1 -i 75 -a 1 -x {0.0 1.0 75 ------- null}
+ -t 0.716000000000001 -s 0 -d 1 -p cbr -e 1000 -c 1 -i 77 -a 1 -x {0.0 1.0 77 ------- null}
- -t 0.716000000000001 -s 0 -d 1 -p cbr -e 1000 -c 1 -i 77 -a 1 -x {0.0 1.0 77 ------- null}
h -t 0.716000000000001 -s 0 -d 1 -p cbr -e 1000 -c 1 -i 77 -a 1 -x {0.0 1.0 -1 ------- null}
r -t 0.718800000000001 -s 0 -d 1 -p cbr -e 1000 -c 1 -i 76 -a 1 -x {0.0 1.0 76 ------- null}
+ -t 0.724000000000001 -s 0 -d 1 -p cbr -e 1000 -c 1 -i 78 -a 1 -x {0.0 1.0 78 ------- null}
- -t 0.724000000000001 -s 0 -d 1 -p cbr -e 1000 -c 1 -i 78 -a 1 -x {0.0 1.0 78 ------- null}
h -t 0.724000000000001 -s 0 -d 1 -p cbr -e 1000 -c 1 -i 78 -a 1 -x {0.0 1.0 -1 ------- null}
r -t 0.726800000000001 -s 0 -d 1 -p cbr -e 1000 -c 1 -i 77 -a 1 -x {0.0 1.0 77 ------- null}
+ -t 0.732000000000001 -s 0 -d 1 -p cbr -e 1000 -c 1 -i 79 -a 1 -x {0.0 1.0 79 ------- null}
- -t 0.732000000000001 -s 0 -d 1 -p cbr -e 1000 -c 1 -i 79 -a 1 -x {0.0 1.0 79 ------- null}
h -t 0.732000000000001 -s 0 -d 1 -p cbr -e 1000 -c 1 -i 79 -a 1 -x {0.0 1.0 -1 ------- null}
r -t 0.734800000000001 -s 0 -d 1 -p cbr -e 1000 -c 1 -i 78 -a 1 -x {0.0 1.0 78 ------- null}
+ -t 0.740000000000001 -s 0 -d 1 -p cbr -e 1000 -c 1 -i 80 -a 1 -x {0.0 1.0 80 ------- null}
- -t 0.740000000000001 -s 0 -d 1 -p cbr -e 1000 -c 1 -i 80 -a 1 -x {0.0 1.0 80 ------- null}
h -t 0.740000000000001 -s 0 -d 1 -p cbr -e 1000 -c 1 -i 80 -a 1 -x {0.0 1.0 -1 ------- null}
r -t 0.742800000000001 -s 0 -d 1 -p cbr -e 1000 -c 1 -i 79 -a 1 -x {0.0 1.0 79 ------- null}
+ -t 0.748000000000001 -s 0 -d 1 -p cbr -e 1000 -c 1 -i 81 -a 1 -x {0.0 1.0 81 ------- null}
- -t 0.748000000000001 -s 0 -d 1 -p cbr -e 1000 -c 1 -i 81 -a 1 -x {0.0 1.0 81 ------- null}
h -t 0.748000000000001 -s 0 -d 1 -p cbr -e 1000 -c 1 -i 81 -a 1 -x {0.0 1.0 -1 ------- null}
r -t 0.750800000000001 -s 0 -d 1 -p cbr -e 1000 -c 1 -i 80 -a 1 -x {0.0 1.0 80 ------- null}
+ -t 0.756000000000001 -s 0 -d 1 -p cbr -e 1000 -c 1 -i 82 -a 1 -x {0.0 1.0 82 ------- null}
- -t 0.756000000000001 -s 0 -d 1 -p cbr -e 1000 -c 1 -i 82 -a 1 -x {0.0 1.0 82 ------- null}
h -t 0.756000000000001 -s 0 -d 1 -p cbr -e 1000 -c 1 -i 82 -a 1 -x {0.0 1.0 -1 ------- null}
r -t 0.758800000000001 -s 0 -d 1 -p cbr -e 1000 -c 1 -i 81 -a 1 -x {0.0 1.0 81 ------- null}
+ -t 0.764000000000001 -s 0 -d 1 -p cbr -e 1000 -c 1 -i 83 -a 1 -x {0.0 1.0 83 ------- null}
- -t 0.764000000000001 -s 0 -d 1 -p cbr -e 1000 -c 1 -i 83 -a 1 -x {0.0 1.0 83 ------- null}
h -t 0.764000000000001 -s 0 -d 1 -p cbr -e 1000 -c 1 -i 83 -a 1 -x {0.0 1.0 -1 ------- null}
r -t 0.766800000000001 -s 0 -d 1 -p cbr -e 1000 -c 1 -i 82 -a 1 -x {0.0 1.0 82 ------- null}
+ -t 0.772000000000001 -s 0 -d 1 -p cbr -e 1000 -c 1 -i 84 -a 1 -x {0.0 1.0 84 ------- null}
- -t 0.772000000000001 -s 0 -d 1 -p cbr -e 1000 -c 1 -i 84 -a 1 -x {0.0 1.0 84 ------- null}
h -t 0.772000000000001 -s 0 -d 1 -p cbr -e 1000 -c 1 -i 84 -a 1 -x {0.0 1.0 -1 ------- null}
r -t 0.774800000000001 -s 0 -d 1 -p cbr -e 1000 -c 1 -i 83 -a 1 -x {0.0 1.0 83 ------- null}
+ -t 0.780000000000001 -s 0 -d 1 -p cbr -e 1000 -c 1 -i 85 -a 1 -x {0.0 1.0 85 ------- null}
- -t 0.780000000000001 -s 0 -d 1 -p cbr -e 1000 -c 1 -i 85 -a 1 -x {0.0 1.0 85 ------- null}
h -t 0.780000000000001 -s 0 -d 1 -p cbr -e 1000 -c 1 -i 85 -a 1 -x {0.0 1.0 -1 ------- null}
r -t 0.782800000000001 -s 0 -d 1 -p cbr -e 1000 -c 1 -i 84 -a 1 -x {0.0 1.0 84 ------- null}
+ -t 0.788000000000001 -s 0 -d 1 -p cbr -e 1000 -c 1 -i 86 -a 1 -x {0.0 1.0 86 ------- null}
- -t 0.788000000000001 -s 0 -d 1 -p cbr -e 1000 -c 1 -i 86 -a 1 -x {0.0 1.0 86 ------- null}
h -t 0.788000000000001 -s 0 -d 1 -p cbr -e 1000 -c 1 -i 86 -a 1 -x {0.0 1.0 -1 ------- null}
r -t 0.790800000000001 -s 0 -d 1 -p cbr -e 1000 -c 1 -i 85 -a 1 -x {0.0 1.0 85 ------- null}
+ -t 0.796000000000001 -s 0 -d 1 -p cbr -e 1000 -c 1 -i 87 -a 1 -x {0.0 1.0 87 ------- null}
- -t 0.796000000000001 -s 0 -d 1 -p cbr -e 1000 -c 1 -i 87 -a 1 -x {0.0 1.0 87 ------- null}
h -t 0.796000000000001 -s 0 -d 1 -p cbr -e 1000 -c 1 -i 87 -a 1 -x {0.0 1.0 -1 ------- null}
r -t 0.798800000000001 -s 0 -d 1 -p cbr -e 1000 -c 1 -i 86 -a 1 -x {0.0 1.0 86 ------- null}
+ -t 0.804000000000001 -s 0 -d 1 -p cbr -e 1000 -c 1 -i 88 -a 1 -x {0.0 1.0 88 ------- null}
- -t 0.804000000000001 -s 0 -d 1 -p cbr -e 1000 -c 1 -i 88 -a 1 -x {0.0 1.0 88 ------- null}
h -t 0.804000000000001 -s 0 -d 1 -p cbr -e 1000 -c 1 -i 88 -a 1 -x {0.0 1.0 -1 ------- null}
r -t 0.806800000000001 -s 0 -d 1 -p cbr -e 1000 -c 1 -i 87 -a 1 -x {0.0 1.0 87 ------- null}
+ -t 0.812000000000001 -s 0 -d 1 -p cbr -e 1000 -c 1 -i 89 -a 1 -x {0.0 1.0 89 ------- null}
- -t 0.812000000000001 -s 0 -d 1 -p cbr -e 1000 -c 1 -i 89 -a 1 -x {0.0 1.0 89 ------- null}